33
Properties=species:S:1:pos:R:3:REF_forces:R:3:orca_forces:R:3 REF_energy=-22749.3836017596 charge=1 orca_energy=-22749.357279840206 pbc="F F F"
C       -0.98834628       2.25363564       0.06031787      -1.84667373       1.82831240       1.35638523      -1.84535272       1.83115211       1.35580171
C       -2.22314644       2.43433571       0.69751781       2.28056979       0.58306515      -1.21006417       2.27768564       0.57948864      -1.21640498
C       -1.13344622      -0.04826428       0.54711783      -0.65458608      -0.83687657      -0.15521015      -0.64380912      -0.83982040      -0.15696395
C       -0.42224625       0.98203564      -0.02128208       1.88202500      -0.14450958      -0.85761184       1.88657905      -0.14954019      -0.85830201
C       -2.35804605       0.15703556       1.17461789       0.26153448      -0.07975639      -0.32332653       0.25722896      -0.08138790      -0.32216348
C       -0.84474629      -1.47696435       0.64451778       1.15036178      -0.29887623      -0.44814995       1.15067621      -0.29702518      -0.44567076
C       -2.02784634      -2.07276440       1.39161789      -1.15312433      -2.49897647       1.12703836      -1.15287202      -2.49670263       1.12516440
C        2.99225354       1.67373562      -1.32218206      -0.47666442       0.17031647      -0.22468157      -0.47058337       0.15963426      -0.21469784
C        2.31415367      -0.71606421      -1.86918211      -0.38000450      -0.18769008      -0.27757990      -0.38507167      -0.17256338      -0.27897629
C        2.00965357       1.45933557      -0.17068207       0.12851372       0.79448879      -0.12608697       0.12080915       0.78721474      -0.13360707
C        0.91725373      -0.10146428      -1.80928206       0.04320580      -0.72666997      -0.09599158       0.04789394      -0.72421382      -0.07977688
C        3.40705371       0.35263562      -1.97778213       0.12539122       0.30307272      -1.05126965       0.12620178       0.29991615      -1.04861495
N       -2.87304640       1.38663554       1.23571789      -1.20119584      -0.57267946       0.78217191      -1.19771515      -0.57639395       0.77875511
N       -2.91014624      -0.97866440       1.67551804       0.15017259       0.10928254      -0.08047065       0.15483506       0.10354041      -0.08280205
N        0.79315376       0.78553563      -0.64518213      -0.58512533       0.07047610       0.14976029      -0.58419296       0.07112658       0.15497128
N        4.64565372      -0.13596444      -1.41668212      -0.05052429       0.12276088      -0.61330867      -0.04995104       0.11330161      -0.61844656
O        0.09965368      -2.11096430       0.24481782      -0.72700644       0.32473812       0.39065045      -0.73362292       0.32510208       0.38631128
O       -2.20364618      -3.23006439       1.69221783       0.13766788       2.10517716      -0.46900755       0.13877176       2.11396373      -0.46272396
H       -0.48134634       3.11463571      -0.36718214      -0.21403880      -0.22795855       0.10983866      -0.21391602      -0.22508082       0.10482700
H       -2.71244621       3.39403582       0.79231805       0.08361917      -0.08970811      -0.11266215       0.08080167      -0.08583697      -0.11362011
H        2.51975369       2.31213570      -2.07768202       0.03416739      -0.01097290       0.21135899       0.03345216      -0.00892727       0.20992639
H        3.87065363       2.21833563      -0.96078217      -0.14758432      -0.10080628      -0.08331630      -0.14622923      -0.09840184      -0.07927983
H        2.47865367      -1.34666455      -0.99028218      -0.10633641       0.16266944      -0.01071775      -0.10892476       0.15811610      -0.01055203
H        2.37575364      -1.37496436      -2.74208212      -0.09606547       0.07215030       0.21236269      -0.09455745       0.07044444       0.20910039
H        2.47805357       0.86993557       0.62991798      -0.16875806       0.02351274      -0.15209326      -0.16645718       0.01949070      -0.15108545
H        1.75605369       2.43973565       0.25591788      -0.05498577      -0.30842236       0.00806709      -0.05422637      -0.30733902       0.00920706
H        0.74555373       0.46533573      -2.73538208      -0.07645994       0.06681284       0.25426269      -0.08012234       0.06480314       0.25071861
H        0.15105362      -0.88876438      -1.76568210       0.31957021       0.32833201      -0.00928981       0.32046218       0.32516347      -0.00994484
H        3.59025359       0.54673558      -3.06068206      -0.30508420       0.01015781       0.61953461      -0.30340512       0.01469208       0.61717248
H       -3.76984620       1.53683555       1.69571781       0.33656535       0.00093922      -0.19465299       0.32974134       0.00197906      -0.19234654
H       -3.79724622      -1.01106441       2.16231775       0.27189341      -0.35746092      -0.06051560       0.26752001      -0.35728799      -0.05716604
H        4.92445374       0.48933566      -0.70028210       0.63975662       0.12859070       0.76096219       0.63962913       0.13291303       0.76614898
H        4.47875404      -1.04186451      -1.05118215       0.40071839      -0.74455297       0.55957985       0.39872140      -0.75152096       0.56504094
26
Properties=species:S:1:pos:R:3:REF_forces:R:3:orca_forces:R:3 REF_energy=-40300.629862832175 charge=0 orca_energy=-40300.60662514039 pbc="F F F"
C        3.08762741      -1.81408274       1.07027578       0.02962461      -0.45451790      -0.07885322       0.02901174      -0.45200662      -0.08605684
N        2.21903419      -1.75638425      -0.11246376       0.46323261       1.40862656      -0.25447619       0.46762920       1.40740614      -0.25767633
C        2.52096319      -2.63935590      -1.22889590       0.24603048      -0.64856923      -0.02655045       0.23391920      -0.64813388      -0.02064368
S        2.30466342      -0.14151841      -0.74460143      -0.34808442      -0.64599007       0.73826385      -0.35360163      -0.64533778       0.74133140
N        0.69631815       0.18799639      -0.39806342       0.48579544       1.47682631       0.28755528       0.48725994       1.47001607       0.28946848
C       -0.28921941      -0.39794567      -1.13046336      -1.56289721      -1.10498011      -1.54763460      -1.56471136      -1.10407545      -1.55142109
O       -0.13373323      -1.13176715      -2.09147716       0.08988778       0.80534649       0.94314468       0.08677426       0.79028923       0.95573102
C       -1.61841929      -0.02301652      -0.57557708      -0.18614073       0.02161413       0.11260466      -0.18541520       0.01563537       0.11708656
C       -2.85207272      -0.43245783      -1.05928302       0.39652723      -0.14618847      -0.21926031       0.39711158      -0.14610617      -0.21961291
C       -3.99769425      -0.00716198      -0.42005491      -0.18121445      -0.06679140      -0.09064995      -0.17560552      -0.06779350      -0.09259517
C       -3.91904163       0.81618655       0.68994838      -0.03470316       0.04455933       0.06635755      -0.03123208       0.04794341       0.06602795
C       -2.68948293       1.22357547       1.17276013       0.18112178       0.50240803       0.63946486       0.18268415       0.50506520       0.63746086
C       -1.55187690       0.79803157       0.53328544       0.72657871      -0.39644819      -0.50594300       0.72561620      -0.39470887      -0.50711420
S        0.16924427       1.14531589       0.90649772       0.00897685       2.14490151       3.06497264       0.00427044       2.14808248       3.05702075
O        0.54363936       0.52848166       2.22322726      -0.57821059       1.48770666      -3.51653433      -0.58226005       1.46965964      -3.53911712
O        0.42032042       2.60935378       0.69730079      -0.18931666      -3.92368221       0.29967922      -0.19841815      -3.91326337       0.30725501
H        2.72154307      -1.11125314       1.81971598       0.01080059      -0.12727332      -0.15535060       0.00969868      -0.12399593      -0.15253105
H        3.07070708      -2.81791496       1.49432755      -0.00814587      -0.01173482      -0.06617341      -0.00930177      -0.01544698      -0.06366496
H        4.11193275      -1.55377042       0.80385208       0.23947524      -0.08527876       0.19587745       0.24278577      -0.08504451       0.19523532
H        2.47383499      -3.67928219      -0.90348095       0.06883646       0.03983806       0.04817846       0.05790994       0.03557978       0.05090963
H        3.51622152      -2.43122339      -1.62366641       0.16334292      -0.27967060      -0.18559293       0.16793336      -0.27763225      -0.19164410
H        1.78090596      -2.48315430      -2.01638532       0.19625936      -0.03977677       0.22625884       0.19498526      -0.03664665       0.22656963
H       -2.89445424      -1.07536018      -1.92171431       0.01305462      -0.07941953      -0.10889039       0.01275507      -0.07984896      -0.11230025
H       -4.96151400      -0.31975201      -0.78739852      -0.08304910      -0.02435308      -0.03090867      -0.08762733      -0.02793350      -0.03496459
H       -4.82135057       1.14129102       1.18169785      -0.04449505       0.04119956       0.06391290      -0.04893885       0.04506496       0.06787860
H       -2.61352634       1.86369359       2.03544784      -0.06412178       0.08148783       0.11472160      -0.06323284       0.08323216       0.11736710
12
Properties=species:S:1:pos:R:3:REF_forces:R:3:orca_forces:R:3 REF_energy=-20626.712287086226 charge=0 orca_energy=-20626.700734876977 pbc="F F F"
C        1.81251621       1.11257374       1.08270824       2.94779658       0.55173069      -3.22703099       2.94659208       0.55603419      -3.22498300
N        1.89886677       0.61345065      -0.09030483       1.01882577       0.19996859       0.85621321       1.02255025       0.19610714       0.85587682
C        1.00976145      -0.23114228      -0.83059293       0.98617852       1.14012694       0.73327130       0.99094511       1.14135070       0.73377866
S       -0.57606113      -0.18902838      -0.14473051      -3.16417289       3.35869026       0.85245711      -3.16925314       3.35690939       0.85514399
O       -0.26460338       0.04501633       1.24957275      -2.20414305      -1.80870926      -0.67625368      -2.20475098      -1.80665989      -0.67784514
O       -1.44961560       0.78069121      -0.78369480       0.75195622      -1.16362631       0.40535194       0.74662991      -1.16998677       0.38013514
O       -1.17469585      -1.62904394      -0.31696627      -0.18968850      -1.44476104      -0.36453089      -0.17649428      -1.43849938      -0.36779906
H        2.78877759       1.55448771       1.27000010      -0.37168157       0.38067114       1.00533509      -0.36858481       0.38147104       1.00646823
H        0.92312038       1.17852914       1.60241091      -0.65754414       0.53137201       1.63488019      -0.65972228       0.52996057       1.63469631
H        1.26954210      -1.17911875      -0.48517171       1.04835439      -2.05529213      -0.35565430       1.04780651      -2.05726832      -0.35555343
H        1.27882874       0.02145568      -1.84133673      -1.12532187      -0.60811698      -0.67360175      -1.12271999      -0.60850150      -0.67661070
H       -2.10107994      -1.83988380      -0.05546164       0.95265782       0.92024517      -0.16632509       0.94700162       0.91908282      -0.16330781
29
Properties=species:S:1:pos:R:3:REF_forces:R:3:orca_forces:R:3 REF_energy=-23794.884706344965 charge=-2 orca_energy=-23794.86521892341 pbc="F F F"
C        1.22524440       0.49830872       0.18207335       1.89318371      -0.62951034      -0.64610946       1.89609868      -0.63098940      -0.66171810
C       -1.53195560       1.97010875       0.29757339      -0.54155415       1.18606257       0.80157334      -0.54361561       1.18507934       0.80447723
C        0.66614437      -2.36739111      -0.24012664       1.73134458      -2.19943237       1.28237998       1.73381357      -2.19899299       1.28140469
C        1.15674448       0.58590883       2.74557328      -0.19208467       0.29311067       0.55451310      -0.18813835       0.29409069       0.55821724
C        2.57984447       0.81960875       2.33617330       0.93039823      -0.15550131       0.24430753       0.93076869      -0.15207461       0.24519924
C       -1.66595554      -0.42419124      -2.47022676      -0.03740107       0.15811853       0.27159265      -0.05025901       0.15753106       0.27742537
C       -1.04235554      -1.64069116      -1.80302668       0.23170295      -0.21898139       0.54029989       0.23712415      -0.22480965       0.53197902
C        1.46494448       1.26050878       1.45717335       0.66296160      -0.87765610      -0.21356875       0.65549357      -0.87760006      -0.20784246
C       -0.16025567      -0.05359124      -0.02672667       0.15334991      -1.46401548      -0.63143986       0.14879785      -1.46771000      -0.63837712
C       -0.95175570       1.04070878      -0.75462663      -1.13177001      -0.11879855       0.24364300      -1.13916255      -0.12446719       0.23895453
N       -2.11405563       0.53320879      -1.46802676       0.18297787      -1.02401888      -1.18001270       0.19303879      -1.03215661      -1.16494419
N       -0.05085564      -1.33119118      -0.76032662      -1.55576289       2.01863289      -1.81923485      -1.55996402       2.01983301      -1.80971090
O       -0.83715570       2.10130882       1.34317327      -1.65450048       0.65214568      -0.66585219      -1.65041519       0.65362003      -0.67296661
O        1.52704442      -2.09499121       0.65647334      -0.80717731       0.23129311      -0.04584267      -0.81194853       0.23713071      -0.04176597
O        2.11664438       0.33580881      -0.64972663      -1.10997522       0.95626026       0.82944167      -1.11698099       0.96073015       0.83062772
O       -2.63925552       2.49360895      -0.01082665       0.77994525       0.30290410       0.58827865       0.78725543       0.31312087       0.59034258
O        0.43894437      -3.53759122      -0.68302661      -0.16162357       0.68256491      -0.21401000      -0.16876554       0.69240310      -0.21296480
H        0.79434431      -0.43489122       2.74727321       0.11607606       0.11080381      -0.26352248       0.11364500       0.10800464      -0.26279108
H        0.75014436       1.20660889       3.53457308      -0.05821723      -0.00370871      -0.06464525      -0.05556678      -0.00080202      -0.06232184
H        3.13134456       1.59740877       2.85007334       0.06409082       0.01787909       0.06991226       0.06552432       0.01733050       0.07614000
H        3.17334437      -0.04509120       2.06517339      -0.11338149       0.05846514      -0.15019794      -0.11430300       0.05781906      -0.15250433
H       -0.95545566       0.04210879      -3.16422677       0.29809821      -0.04391033      -0.15881890       0.29245494      -0.04909057      -0.16020067
H       -2.52605557      -0.74639124      -3.06762671       0.04269981      -0.09789676       0.04630290       0.03991856      -0.10442522       0.04301539
H       -1.82875562      -2.23829103      -1.32442677      -0.14073309      -0.05009353      -0.35567203      -0.14062221      -0.05063766      -0.35179824
H       -0.56825566      -2.25239110      -2.57922673      -0.06179683      -0.05186610       0.32594752      -0.06521794      -0.05301812       0.32763053
H        1.26524448       2.30670881       1.35677326      -0.01002741       0.18198141       0.21317938      -0.00614903       0.18138416       0.21734667
H       -0.60315567      -0.27989122       0.95147341      -0.01082383       0.44468278      -0.31110653      -0.01751247       0.44470436      -0.31050863
H       -0.32055566       1.63950872      -1.42372668       0.33487335      -0.20043062      -0.03344969       0.33579054      -0.20154044      -0.03624034
H       -2.59185553       1.30410886      -1.93502665       0.19967584      -0.15808454       0.72630638       0.19889713      -0.15446714       0.72389511
21
Properties=species:S:1:pos:R:3:REF_forces:R:3:orca_forces:R:3 REF_energy=-25310.792869953766 charge=0 orca_energy=-25310.774807833095 pbc="F F F"
C       -2.87368226       0.80944127      -0.91756976      -0.39596945      -0.01144131      -0.02978371      -0.39170735      -0.01683188      -0.03129431
C       -1.34298313       0.69120711      -1.11901700       0.32175657       0.76288706      -0.35041723       0.32137556       0.74959434      -0.35387625
C       -0.89038515      -0.55818391      -0.45605043      -2.85967422       0.04125706       2.72113037      -2.85332659       0.04959431       2.72264940
N       -2.07024217      -0.22402498       1.05352354       1.22047389       0.06267131      -2.50389194       1.22271521       0.06688972      -2.51635489
C       -3.26535034      -0.17808279       0.19502297      -0.00177895      -0.10158835       0.14927378       0.00363332      -0.09067112       0.15338173
C        0.26328045      -0.90207285       0.41017690       3.87327600       1.49694669      -0.26263857       3.86694853       1.49652003      -0.26468294
O        0.26187950      -1.70569086       1.29529405      -0.83084679      -0.30199748      -0.18424845      -0.82981395      -0.29392019      -0.16980172
S        1.71526229       0.25740632      -0.08264357      -0.13541625      -0.95233768       2.06269503      -0.14705178      -0.94820121       2.06505117
O        1.06408417       1.49194336       0.47880057       0.95961046      -1.19298148      -0.92606151       0.96859442      -1.16017438      -0.93161883
O        2.92019629      -0.24398062       0.59351242      -1.83018363       0.86230302      -1.06416559      -1.82757260       0.84063398      -1.06490030
N        1.67135632       0.07340891      -1.62742829      -0.12120459       0.56337649       0.59218484      -0.12136923       0.55334293       0.59630782
H       -3.39582539       0.59179550      -1.84684253      -0.15562843      -0.12797837       0.14439394      -0.15883933      -0.12939670       0.14215288
H       -3.17880559       1.81876302      -0.62941700       0.31145748      -0.05943856      -0.09178227       0.31267980      -0.05666864      -0.08877728
H       -0.83358711       1.56719875      -0.70582706       0.08566788      -0.39350104      -0.07385119       0.08859307      -0.39217542      -0.07315994
H       -1.07894874       0.63407815      -2.16815066      -0.08832182      -0.00043169      -0.17761773      -0.08771769      -0.00333243      -0.18129204
H       -1.43259048      -1.44925952      -0.75024557       0.28188509      -0.18597758      -0.45146430       0.28099309      -0.18861637      -0.45652017
H       -1.75328970       0.69744629       1.32992744       0.04898276      -0.02410445       0.27685791       0.05036152      -0.01794015       0.27788472
H       -1.84178746      -0.91701502       1.74144530      -0.42452028      -0.54966754       0.26184183      -0.42111132      -0.55225713       0.26623562
H       -4.15080118       0.08917382       0.75940901      -0.14410593       0.13968985      -0.07673175      -0.14846547       0.14190383      -0.07461894
H       -3.39318776      -1.16415691      -0.24424881      -0.22251368      -0.06022100       0.30337092      -0.22211314      -0.06188077       0.29954268
H        1.27728951       0.94371641      -1.97126698       0.09504110       0.00761211      -0.31556597       0.09319393       0.01358725      -0.31630840
22
Properties=species:S:1:pos:R:3:REF_forces:R:3:orca_forces:R:3 REF_energy=-19586.470680393883 charge=-3 orca_energy=-19586.45150165603 pbc="F F F"
C        3.49518585      -2.50626850       0.49543220       0.16371799      -0.29028481      -0.19707404       0.16741441      -0.28991460      -0.19317853
C        2.66814470      -1.80911231       1.57496107      -0.05840251       0.13042709       0.32353768      -0.06254408       0.14096868       0.31788349
C        1.90174818      -0.57936192       1.05907357       0.25290617       0.24921390       0.49490401       0.24304053       0.23943285       0.48955908
C        0.79550451      -0.92071623       0.05845086      -0.59070969       0.68964386      -0.51368368      -0.58364870       0.68722154      -0.50296988
N        0.00441500       0.23975165      -0.34595111      -0.53544927       0.18441871       0.36298075      -0.52783711       0.18942621       0.36140594
C        0.45416006       1.13841403      -1.36878097      -1.42284226       0.64919049       0.54080802      -1.42186232       0.64996980       0.53343214
O        1.49804187       0.83373642      -1.99347019       1.46525562      -0.82686388      -0.38372386       1.45854017      -0.82631205      -0.38177775
O       -0.23138914       2.16780877      -1.57283163       0.17004836      -0.14782050      -0.11540227       0.17205555      -0.15145971      -0.11143314
N       -1.12638235       0.56904244       0.45259094      -1.93239701      -3.44863153      -3.17006826      -1.93168955      -3.45237801      -3.17008086
C       -2.41219854      -0.05577736       0.15482667       2.37661028       1.15894639       0.36292791       2.37741805       1.15484735       0.36497451
O       -3.36457729       0.28358620       0.89078730      -1.01634681       0.06942859       0.55974519      -1.02692943       0.06661396       0.55134587
O       -2.45368719      -0.87582916      -0.79208249      -0.13898084      -1.19255996      -1.05807126      -0.13498154      -1.18426649      -1.07632813
O       -1.02328324       1.38467634       1.43794537       1.48019576       2.62053752       3.32722855       1.47698931       2.62427829       3.32534612
H        4.07594299      -3.34960747       0.89572507      -0.02144902       0.03367415       0.04079801      -0.01990270       0.03065772       0.04045476
H        4.20880938      -1.81449831       0.02869534      -0.19955289      -0.03768970       0.08461542      -0.19771008      -0.03985945       0.08597775
H        2.86358261      -2.90667486      -0.30764478       0.08501343       0.21492383       0.20701794       0.08101463       0.21267385       0.20368045
H        1.95407748      -2.52179980       2.02379918       0.12750863       0.11639863      -0.23348400       0.12549706       0.11499257      -0.23434809
H        3.32827520      -1.51208484       2.41076612       0.00224267      -0.08238057      -0.21702735       0.00112053      -0.06643627      -0.21599985
H        2.60632563       0.13162775       0.60101920      -0.13745406      -0.23445517      -0.11592370      -0.13811156      -0.23276917      -0.11089048
H        1.45865631      -0.02857379       1.90456295      -0.14167407      -0.26333237      -0.30794337      -0.14039119      -0.26826248      -0.30854271
H        1.21255779      -1.39367974      -0.83723158       0.19578792       0.15530369      -0.06156692       0.19915019       0.15612126      -0.06300954
H        0.11883631      -1.66692519       0.49203014      -0.11683505       0.24874258       0.08607468      -0.11663214       0.24445413       0.09449886
18
Properties=species:S:1:pos:R:3:REF_forces:R:3:orca_forces:R:3 REF_energy=-10575.429282193634 charge=1 orca_energy=-10575.415688094576 pbc="F F F"
C        0.98631352       1.21264803       1.31337607       0.23925063       0.24480057       0.10031638       0.24017564       0.24729691       0.10338991
C        0.33998325       0.30816078       0.31587136       0.75983846      -0.13585895      -1.00040758       0.75894007      -0.14243259      -1.00254087
C       -1.12362945       0.88496929      -0.35496297       0.03328124       0.31862459      -0.28673756       0.02640136       0.31057253      -0.28563138
O       -1.84751177      -0.19544198      -0.63222742      -0.70386708      -0.27128750      -0.37419623      -0.69133953      -0.26730537      -0.36216971
C       -2.65114951      -0.73597592       0.44708154       0.18658687      -0.05781609      -0.10416630       0.18282695      -0.05669988      -0.11231634
N        1.08319509       0.10092558      -0.85674542       1.78517449      -2.05614114       2.69376659       1.77370318      -2.05685184       2.69977020
F        2.55895162      -1.18623769      -0.13943006      -2.00632215       1.84264219      -1.21617615      -2.00764010       1.84242703      -1.21639973
H        1.41778290       0.59436840       2.09448481       0.13512120       0.02866688       0.06073939       0.13799474       0.02828851       0.06384965
H        0.27056858       1.89167154       1.76485789      -0.02146347       0.00673105       0.05118074      -0.02105092       0.00790203       0.05268480
H        1.78173375       1.79848993       0.86326152       0.06631369       0.13661702       0.04899381       0.07089800       0.14021483       0.05025765
H        0.01728434      -0.64071900       0.73373729      -0.10371821      -0.05858773      -0.22911297      -0.10015770      -0.06044464      -0.22964556
H       -0.83304471       1.43072236      -1.25836527      -0.53428125       0.02190889       0.30480868      -0.53579320       0.02416888       0.30091971
H       -1.54009211       1.52937531       0.43012163       0.38700318      -0.04677320      -0.08249216       0.38541075      -0.04607892      -0.08217467
H       -2.58487535      -1.81564403       0.38228452      -0.08817460      -0.02206007      -0.05687846      -0.09085286      -0.02631611      -0.05676180
H       -3.67649388      -0.40319923       0.31558660       0.00434815      -0.00636816      -0.02966873       0.00097582      -0.00879708      -0.02907463
H       -2.27771354      -0.40931258       1.41638911       0.03684437       0.07110119       0.00623359       0.03470892       0.07258831       0.01169133
H        1.81790113       0.75812429      -1.11021006      -0.02993500       0.12358806      -0.06427409      -0.02633305       0.12953839      -0.06458892
H        0.82396144      -0.57332081      -1.57553875      -0.13630956      -0.13405605       0.16342016      -0.13886809      -0.13807100       0.15874036
15
Properties=species:S:1:pos:R:3:REF_forces:R:3:orca_forces:R:3 REF_energy=-20015.52491099549 charge=1 orca_energy=-20015.511620733247 pbc="F F F"
C        0.17580710       0.80048949       0.62917304      -1.14179146       0.84947836       0.46246707      -1.14189662       0.84897588       0.46045120
C       -0.16196667      -2.92214513       0.31016186      -0.07743042      -0.40674537      -0.16120464      -0.08267357      -0.40214414      -0.15698684
C        1.58392477       0.60831553      -1.77403283       0.07465620       0.22320133       0.41824421       0.07016835       0.21537227       0.43056232
N       -1.28119504       0.86223441       1.21660674       1.60541105      -0.63464081      -0.92666757       1.60430439      -0.63880891      -0.92689800
N       -1.51596093      -0.33866122       1.16665804       0.56421983       0.39707851       0.27167603       0.56583589       0.40269657       0.27381267
N        0.48863643      -1.64360356       0.20025441       0.54417199       0.62446576       0.20700777       0.54872255       0.63084045       0.20356406
N       -0.06925682      -0.67250949       0.61833757      -1.30177808      -0.72449106       0.16484727      -1.29944974      -0.73026214       0.16090476
S        0.26508230       1.57888818      -0.97246456      -0.27326217       0.08129217      -0.45344242      -0.27601919       0.08271047      -0.45661059
H        0.92467964       1.13012791       1.34346390       0.08944529      -0.25245860       0.14832911       0.09269130      -0.25160220       0.15034646
H       -0.44182369      -3.19202256      -0.70731497      -0.07474784      -0.06721368      -0.06889971      -0.07469902      -0.06835848      -0.07232574
H       -1.01492095      -2.92299461       0.97338575      -0.17175114       0.04688016       0.05819322      -0.17602486       0.04675619       0.05976017
H        0.60263228      -3.62556005       0.61710042       0.07124893      -0.09693188       0.07094358       0.07406840      -0.09950280       0.07334071
H        1.67175460       1.02795386      -2.77296066      -0.02621070       0.03446585       0.05820073      -0.02726860       0.03629332       0.05446909
H        1.31438506      -0.43729576      -1.83761358       0.01890532      -0.00849904      -0.12438093       0.02243578      -0.01091892      -0.12249278
H        2.51493692       0.74368030      -1.23276448       0.09583047      -0.06169738      -0.13228358       0.09980495      -0.06204757      -0.13189748
28
Properties=species:S:1:pos:R:3:REF_forces:R:3:orca_forces:R:3 REF_energy=-22202.07049213102 charge=-1 orca_energy=-22202.048985956248 pbc="F F F"
C        1.04987526      -0.30713946       0.43164694      -0.07160980       0.31000081      -0.48593965      -0.08383984       0.31551874      -0.48277744
C        1.41899264      -0.11398058       1.89743245      -0.29664111       0.05904750       0.96569884      -0.29557749       0.05965468       0.96726980
C       -1.33012545      -2.70314813      -0.18459576       0.07558324      -0.00711327      -0.10970147       0.07602202      -0.00466169      -0.10947750
C       -0.88900238       2.16887283      -1.78619146       0.24903204      -0.14362513      -0.20209232       0.24991595      -0.15600773      -0.19564168
C       -2.24214721       2.64480805      -1.23246706      -0.08152814       0.05493677      -0.05398731      -0.07435795       0.05303706      -0.04568434
C       -1.06362844       1.97592628       0.61041021      -0.04479026      -0.01195589       0.07886541      -0.05318356      -0.00714197       0.07326569
C        1.66868246      -1.35850561      -1.50666189       0.18219471      -0.11421237      -0.35045516       0.18006711      -0.11042655      -0.34522311