13
Properties=species:S:1:pos:R:3:REF_forces:R:3:orca_forces:R:3 REF_energy=-394.680034845 orca_energy=-10744.036998191623 pbc="F F F"
C        1.93948078       0.26786509       0.15155394       0.19748348      -0.03783707      -0.08897758       5.20783582      -1.13922409      -2.49219832
C       -0.28660196      -0.21248654      -0.11766805      -0.05124432       0.17242676      -0.01591123      -1.25414222       4.45648025      -0.36865649
C       -1.99300635       0.98964113       0.08280727      -0.03355009      -0.00167789      -0.07206924      -1.00225175      -0.09913479      -1.98938428
C       -2.43462038      -0.35280091       0.16937873       0.10124761       0.08390671      -0.03441881       2.77320017       2.31480936      -0.92764214
H        3.85997963       0.87637413       0.46238202      -0.07864722      -0.10152047      -0.07707655      -2.18222763      -2.91190669      -2.14615825
H        1.50791502       1.25697803       0.09625354       0.00969429       0.01842520       0.04044462       0.32499492       0.40981813       1.09300473
H        1.30317616      -1.72060859      -0.19059320      -0.06912009       0.12676629       0.01061738      -1.90010752       3.53630038       0.29907681
H       -2.64986515       1.85949516      -0.24332730       0.03331372      -0.04029446       0.04763012       0.93370413      -1.16555433       1.31169566
H       -3.17721629      -1.14246142       0.15745105      -0.03549127       0.04354012       0.00886576      -0.88934216       1.25879641       0.24290380
N        3.28708935      -0.02170242      -0.01618618      -0.13780855       0.11513089       0.11706453      -3.77353695       3.35587342       3.25709780
N        0.92413074      -0.65895861      -0.09869760       0.27152234      -0.16230139       0.00162076       7.16287382      -4.26436733       0.06803512
N       -0.53427005       1.12629330      -0.16150784      -0.16568170      -0.14424059       0.03607142      -4.50015793      -4.15350841       1.00146682
O       -1.24176884      -1.05031443      -0.00798200      -0.04171821      -0.07232410       0.02613881      -0.90084270      -1.59838233       0.65075877
33
Properties=species:S:1:pos:R:3:REF_forces:R:3:orca_forces:R:3 REF_energy=-763.851987141 orca_energy=-20794.31702319287 pbc="F F F"
C       -1.69541168      -0.63923341      -0.74980432       0.05355999       0.07544090      -0.08469006       1.33613615       1.95826286      -2.21578726
C        3.09174371      -0.98681933       0.22870567       0.00383052       0.00185687      -0.02028474       0.50661415       0.20160242      -0.43295139
C        2.10375643       0.00766577      -0.30948091      -0.05343521       0.07523194       0.00740698      -1.44753831       2.04105844       0.28046039
C       -2.39623427       0.65097040       1.77163124      -0.00827646       0.13919879       0.12957278      -0.24570049       3.68268977       3.44624533
C        2.23013377       1.49271882       0.47174802       0.01442617      -0.04727435      -0.07408029       0.36882376      -1.32463808      -1.82829766
C       -4.19731379      -1.06189239      -0.20078348      -0.02210165       0.05228681       0.04744043      -0.58212585       1.36359572       1.26555074
C       -3.06011939      -0.08396296      -0.53721476      -0.01826247       0.21473594       0.02262554      -0.49523801       5.68412600       0.50234597
C       -0.35955960       0.45956996      -0.54697526      -0.07174175      -0.02316742      -0.04267667      -1.85851208      -0.36307715      -1.21630791
C       -2.80731368       1.26915407       0.46625903      -0.04498994      -0.06982677      -0.04942920      -1.23289234      -1.79516666      -1.25585678
H       -1.33181334       0.36254299       1.92934835      -0.03239213      -0.02683693      -0.02507130      -0.99792154      -0.63326985      -0.65974852
H        3.11521268      -2.97570801       0.38932642      -0.00767399       0.05915269      -0.04017812      -0.39023257       1.80577862      -1.28847296
H        3.08901858       2.28558087      -0.90641630      -0.01622809       0.03074161      -0.02186515      -0.80715633       0.96607945      -0.47756111
H        1.34611642       1.59695983       1.15549302       0.03979876       0.00066101      -0.01884389       1.13971289       0.00041685      -0.56862395
H        3.25850415       1.63703167       0.90253818      -0.04484959      -0.03064908       0.02204873      -1.32582215      -0.80904328       0.48479868
H        2.27013302       0.09618869      -1.44498372       0.01503568       0.01439008       0.05901860       0.40330314       0.35195937       1.68882367
H        0.34270203      -1.28183413      -0.12419187       0.01754436      -0.07902486       0.02182677       0.45960164      -1.93530238       0.53704422
H       -2.41495395       1.56321287       2.49949765       0.00009273      -0.04744135      -0.02165026       0.01611826      -1.36081320      -0.64719099
H       -3.20662522       0.01550861       2.22682953       0.04307920      -0.00308495      -0.02428316       1.24458932       0.02151732      -0.68931002
H       -2.08349586       1.99887788      -0.05090780      -0.04324489      -0.05888083       0.04097202      -1.23534629      -1.63834158       1.14600374
H       -5.13367462      -0.42048395       0.06705417       0.05010957      -0.05037020      -0.03094092       1.43639858      -1.40087912      -0.84490470
H       -4.02175713      -1.70368361       0.70447999       0.00077164       0.02377581      -0.02074080       0.00354769       0.70111528      -0.66955856
H       -4.32938147      -1.74926925      -1.03876472      -0.01939929       0.00321675      -0.00466937      -0.48455031       0.18593731      -0.00076825
H       -3.36119270       0.72174430      -1.29691243       0.00763786      -0.09124757      -0.02025247       0.24776386      -2.48431286      -0.41661217
H       -1.63320041      -0.97988153      -1.78899646       0.01340837       0.02386835      -0.02553196       0.37287954       0.69712740      -0.51018069
H       -2.17150259      -2.24778509       0.42678317      -0.08431899      -0.03939089       0.04103500      -2.05994204      -0.91169313       0.97381841
H       -0.71566230      -2.39033389      -0.22935903      -0.03473693       0.00501291      -0.01389371      -1.04939165       0.28865119      -0.24542202
H       -3.77932191       1.83177221       0.51207358       0.01862526      -0.02591651       0.01521417       0.62508855      -0.75888365       0.38330017
N       -1.46611035      -1.74115217       0.02456814       0.11784153      -0.08400957       0.05739233       3.07174290      -2.42903805       1.38952806
N        0.68562531      -0.38671270      -0.20205015       0.02674554       0.15708160      -0.02209048       0.60127313       4.16296925      -0.65626015
O        2.18664908       2.45005298      -0.57998502       0.02495840      -0.00524126       0.01743265       1.16394361      -0.22715319       0.32623374
O       -0.42003742       1.67636514      -0.80337888       0.05155968      -0.11093817       0.01441022       1.38493975      -3.46092776       0.46731850
O        4.11662960      -0.65352964       0.77592134      -0.01977449      -0.03865288       0.00044571      -1.07973231      -1.24741325      -0.28772695
O        2.71253395      -2.23719025      -0.17443608       0.02240059      -0.04469847       0.06433062       0.90962538      -1.33293405       2.02007042
16
Properties=species:S:1:pos:R:3:REF_forces:R:3:orca_forces:R:3 REF_energy=-379.998370011 orca_energy=-10344.42931957092 pbc="F F F"
C       -1.79477417      -1.64796984      -0.00733520      -0.02226441      -0.05096588      -0.00613847      -0.61478571      -1.35962599      -0.15828643
C       -0.68344140      -0.69631243      -0.00340922       0.01285155       0.08550020       0.00934745       0.33445352       2.43863653       0.26176447
C        1.51632202      -0.00841358      -0.00343156       0.02409908       0.03638096       0.00051926       0.59371253       0.93511484       0.01358923
C       -0.69690031       0.68534768       0.01413325       0.04632148      -0.08804701      -0.01896596       1.23904378      -2.49657898      -0.52245998
C       -1.78092253       1.66653597       0.00715368      -0.02335684       0.01932469       0.00643941      -0.63480027       0.51603448       0.16829862
H       -1.77659655      -2.30092120      -0.91490209      -0.00482545       0.01627030       0.01731263      -0.11463089       0.51745738       0.57470527
H       -1.75432718      -2.32979989       0.85847771       0.00387535       0.00227213      -0.00355742       0.10667568       0.15618670      -0.20699556
H       -2.77656937      -1.16228724       0.06303470       0.00831779       0.00390322      -0.00798769       0.37091051       0.03830329      -0.21892782
H        1.03662860      -2.01887321       0.05175497      -0.00507483      -0.00088716      -0.00156111      -0.21941694       0.16552372      -0.05035600
H        0.93149507       2.04562354       0.02583767       0.01509904       0.00584371      -0.00058526       0.32854832      -0.04811583      -0.02374995
H       -1.74643743       2.31678319      -0.88549036       0.01043576       0.00388105       0.01406320       0.27788421       0.00412372       0.48669295
H       -1.67905748       2.27330709       0.95417792      -0.02702385      -0.01230037      -0.03562001      -0.70614973      -0.40744262      -1.05790630
H       -2.74626470       1.13825238      -0.11360915       0.00874854       0.01321410       0.02493963       0.37427483       0.41169440       0.66510784
N        0.66506726      -1.08332276       0.01152662      -0.00675485      -0.00704395      -0.00389373      -0.01182478      -0.17189234      -0.10189570
N        0.64641374       1.08696270      -0.01281427      -0.00856559      -0.02414030       0.00441702      -0.09192100      -0.61381054       0.13570911
O        2.74613237       0.00216364      -0.00911668      -0.03188277      -0.00320571       0.00127102      -1.23197406      -0.08560874       0.03471023
20
Properties=species:S:1:pos:R:3:REF_forces:R:3:orca_forces:R:3 REF_energy=-344.888176338 orca_energy=-9388.66153984027 pbc="F F F"
C        0.19754504       0.62986821       0.44034067       0.12723428       0.14463416      -0.01302137       3.36802543       3.81802717      -0.29310832
C        0.55114353      -0.43295038       1.26226199       0.05766374      -0.14043684       0.23545828       1.42180512      -3.67716185       6.28215829
C        1.00783169      -1.30734468      -0.12161128      -0.07350709      -0.05397092       0.04290518      -1.88307897      -1.62223025       1.13593954
C       -0.00786373      -0.71387196      -1.31844771       0.02750053      -0.15256971       0.00962703       0.64153948      -3.99212394       0.16185902
C       -0.76851296       0.09932911      -0.45275369      -0.11257303       0.01771551       0.00831478      -2.81556979       0.47533221       0.21470597
C       -0.75856781       1.53736424      -0.16463423      -0.04040228       0.11195763      -0.05814983      -1.17512192       2.91909771      -1.48140964
H       -1.68700159       1.75340092       0.26323813      -0.04898953       0.03467833       0.04417129      -1.14173329       0.85462750       1.09897417
H       -0.49120206       2.43091440      -0.85299349       0.00517464      -0.07046308       0.03998217       0.11583920      -1.98921654       1.15561811
H       -2.60894799      -0.49687245      -0.32769194       0.02994124      -0.02781227       0.07384439       0.96630852      -0.78746590       2.12328406
H       -1.98080277       0.15661025       1.11545289      -0.01279157      -0.09429095      -0.04379159      -0.30108696      -2.65960787      -1.30687653
H       -0.74859875      -1.56098211      -1.51491416       0.05619186       0.02434835      -0.03459083       1.57418425       0.73480243      -0.86290170
H        0.42621911      -0.24180800      -2.18323088       0.00706931      -0.00130681      -0.01439681       0.13548771      -0.11765972      -0.21968556
H        1.36764252      -0.29416904       2.14113164      -0.03996243       0.00231319      -0.10163732      -1.16279859       0.03932943      -2.76460340
H        2.11335850      -1.43982840      -0.25493580      -0.04946949      -0.02224937       0.00594162      -1.46976428      -0.53083956       0.15796961
H       -0.27728528      -0.80611414       1.99743056       0.03869303      -0.01482705      -0.07795037       1.14667876      -0.33797120      -2.13705274
H        1.63423443       2.25608397      -0.25592488       0.00777178      -0.19993755       0.01509179       0.19233215      -5.54907043       0.46774379
H        2.20210767       0.26636875      -0.86042178      -0.12223139       0.10835232       0.10512913      -3.31688184       2.94211554       3.02460872
H        0.37059090      -2.14176989       0.09194365       0.03448296      -0.07033520       0.00449440       1.00165814      -1.73976345       0.07951322
N        1.58240438       0.84507966      -0.00858913       0.15192896       0.25643679      -0.15052617       4.06952257       6.99439184      -4.36172491
N       -1.81808567      -0.66739428       0.40430075      -0.04372551       0.14776348      -0.09089578      -1.36734568       4.22538688      -2.47501170
38
Properties=species:S:1:pos:R:3:REF_forces:R:3:orca_forces:R:3 REF_energy=-991.472410654 orca_energy=-26990.401940133277 pbc="F F F"
C       -2.78679657      -0.51591897       0.51294553       0.05075206       0.02327788       0.12083247       1.34914851       0.52561175       3.18903022
C        4.50772810      -1.05308235      -0.30135405       0.16412006       0.06367286      -0.03464194       4.07888932       1.64956732      -0.75112170
C        4.43307066       0.37414217      -0.38921237      -0.11797873      -0.09100240       0.05247109      -3.19883038      -2.48616124       1.42465840
C        3.21276927       0.88134331       0.10761808       0.03168176       0.03035246      -0.01319872       0.86778215       0.72997216      -0.34595593
C        2.43331027      -1.25454271       0.79715157      -0.03327365      -0.04891869       0.04078244      -0.81224987      -1.09764217       1.09877637
C        2.22855592       0.07136923       0.76123631       0.04896666       0.09871271       0.01223558       1.42407761       2.45982340       0.32403872
C        3.57519221      -1.82051194       0.26150131      -0.05192024      -0.16812019       0.00055259      -1.31431744      -4.25207760      -0.11456543
C       -0.03884210       2.32485127      -0.23644058       0.04052927      -0.06894220       0.04478727       1.37486050      -1.47206743       1.16232522
C       -0.11751952       0.94110042       0.59864116      -0.06722809       0.01866641       0.05802965      -1.83721055       0.44772108       1.53636263
C       -5.15268993      -1.44594932       1.06704772      -0.03984942       0.07094070       0.07661621      -1.06485345       1.85362383       2.01993598
C       -4.04615116      -1.23224020       0.00966886      -0.00565922      -0.05878151       0.07606785      -0.13664068      -1.56006175       2.13741697
C       -1.65296698      -0.75669360      -0.47004911      -0.08217470      -0.03918017      -0.20519316      -2.00821057      -0.93270414      -5.44089186
C        1.15280056       0.75282151       1.58158505      -0.07755441       0.00529958      -0.10075495      -2.03708404       0.18030832      -2.64710715
H        0.84573179       0.35794663       2.55598211       0.01037980      -0.02292359      -0.01209319       0.31754008      -0.55271312      -0.47132026
H       -1.84402585       2.06917882      -0.67315018       0.02319292      -0.00573073      -0.01558523       0.87315664      -0.06430702      -0.60933915
H        6.48385239      -1.22370338      -0.10455772      -0.07820187      -0.04542146      -0.05984096      -2.32435268      -1.42890899      -1.83220650
H        5.25995874       0.94712734      -0.70732790       0.02440029       0.02824982      -0.02267573       0.51756728       0.66745696      -0.55853316
H        3.70834541      -2.99285150       0.20982546      -0.00398830       0.09626847       0.01551323      -0.11954291       2.66511758       0.42378811
H        3.06310463       1.97093308       0.02187202      -0.00401093      -0.01695849       0.01189965      -0.06817249      -0.58014367       0.34090543
H        1.70340133      -1.76230276       1.43598557       0.01268320      -0.02714513      -0.01772111       0.43235636      -0.66144923      -0.55472004
H        1.46140289       1.76057053       1.73460007       0.01240649       0.03677620       0.01496901       0.29593900       0.81503047       0.37385019
H       -1.17996514       1.11284637       1.12809455       0.10637230      -0.01197841      -0.01908692       2.93395309      -0.30872845      -0.58288576
H       -5.69757223      -0.49256650       1.32659352       0.00219615      -0.01834588      -0.04083378       0.12254675      -0.59853487      -1.06376989
H       -5.93438005      -2.21852469       0.89686102       0.02639188       0.01617526      -0.02182348       0.80436380       0.52911523      -0.54508628
H       -4.84126806      -1.60739481       2.14118838       0.02970866      -0.02144790      -0.04483661       0.72411791      -0.51433161      -1.30388468
H       -3.83300185      -0.81889796      -1.76217532       0.04468090      -0.01511400      -0.05969988       0.87849973      -0.26267793      -1.41647236
H       -3.57012296      -2.22154236      -0.02367714      -0.02740056      -0.01671905      -0.05625220      -0.79741774      -0.33260501      -1.49418781
H       -2.43158269      -0.89264470       1.53550458      -0.02685714       0.01135294      -0.04235176      -0.75704573       0.33262083      -1.25107505
H       -3.49342442       0.70365870      -0.28420123      -0.09852562       0.10048170      -0.05906352      -2.47698559       2.72310241      -1.42300479
H       -3.67057586       1.18607843       1.36296272      -0.00037885      -0.00619633      -0.04588539       0.16727259      -0.19100957      -1.39308986
H        0.24703865      -0.34493712      -1.08205271      -0.03894176      -0.00637011       0.02489113      -1.14047051      -0.15765395       0.80489712
N       -3.04861879       0.99917853       0.55229461       0.04690491      -0.06938127       0.03330726       0.89343681      -1.88217184       0.98185023
N       -0.43246678      -0.23067634      -0.30053523       0.05423814       0.04072934       0.00532742       1.27089927       0.98367859      -0.04035149
O        5.74201298      -1.69343543      -0.65741700       0.02475759       0.06554358       0.05669674       0.93067242       1.99722146       1.76730210
O       -2.04267216      -1.31249464      -1.61747205       0.09574383       0.06397679       0.16304040       2.65293783       1.77481156       4.51340423
O       -4.54038239      -0.60896242      -1.17456198      -0.02431778      -0.02283221       0.08016571      -0.32158468      -0.80953310       1.94114595
O        0.79279608       3.18372989      -0.08571853      -0.00350249      -0.01462508       0.00000470      -0.59391891      -0.83392756      -0.09475408
O       -1.00176489       2.36708498      -1.12441540      -0.06834315       0.02565809      -0.01665185      -1.90112944       0.64462731      -0.10536463
26
Properties=species:S:1:pos:R:3:REF_forces:R:3:orca_forces:R:3 REF_energy=-602.3518058232464 orca_energy=-16397.88148302628 pbc="F F F"
C        0.73692125       1.48033988      -0.04880550       0.00991560       0.01240104       0.02753218       0.25275048       0.35663325       0.72860254
C        1.81286335       0.42974591       0.06373324       0.00465575      -0.10292631       0.06841905       0.19796971      -2.75375296       1.86174471
C       -2.45501256       0.44376865       0.66313177       0.01868650       0.02231068      -0.07849918       0.50047915       0.77800672      -2.21946002
C       -2.27017164      -1.05914927       0.75657266      -0.02699262      -0.00256703       0.03387778      -0.71472172      -0.05969974       0.91728664
C       -2.00641942      -1.36002970      -0.72281343      -0.00654387       0.02927281      -0.00977534      -0.13414249       0.71840015      -0.29653934
H       -3.11667228       1.51395524      -0.96819127       0.00673034      -0.01369334       0.00549462       0.14353425      -0.55036091       0.25102696
H       -3.93390179      -1.01661932      -1.25039804      -0.00788584      -0.00947909      -0.00758559      -0.00585430      -0.15051085      -0.28481274
H       -0.99970472      -0.99742216      -1.00261199      -0.01231353      -0.00345497      -0.00055975      -0.44936915      -0.13966815       0.00241188
H       -2.10716128      -2.38772440      -1.05789018      -0.00202413      -0.01176673       0.00774415      -0.03505584      -0.16167446       0.26681881
H       -1.60450447      -1.45172536       1.53142548       0.01123264       0.01108166      -0.01285134       0.19264713       0.35742516      -0.44951960
H       -3.28588319      -1.39729190       0.97985703      -0.00343963      -0.02279418       0.00695674       0.02839541      -0.52757511       0.14472485
H       -1.78624952       1.33745670       2.14575648       0.03039086       0.00824939      -0.02549243       0.76601521       0.29781675      -0.87208382
H        4.90776730       0.40125757      -1.00504887       0.00057047       0.00585171       0.01522513      -0.16643047       0.01728590       0.42091045
H        3.82902575      -0.55329996      -1.77171731       0.00172105       0.00971414       0.01755530       0.10066165       0.32421173       0.67856422
H        3.03380752       1.69128048      -0.99590111      -0.00750221      -0.03175780       0.00961754      -0.22254174      -1.04171155       0.38972340
H       -0.15632670       1.10375524      -0.53929812      -0.00102915       0.00176461      -0.00650000       0.11935662       0.08197996      -0.09854966
H        1.12257075       2.36418366      -0.59483117      -0.00987168      -0.01383307       0.00443192      -0.29163399      -0.49785581       0.18939605
H        0.42140320       1.82292581       0.96561140       0.00904149      -0.01102070      -0.02963405       0.30274867      -0.34280712      -0.91159107
H        3.40909910      -1.21728694       0.44186273       0.02549275      -0.00558563       0.00069987       0.38128969      -0.26050119       0.24366198
N       -3.14611459       0.59606695      -0.52484572      -0.01398463       0.01070945      -0.01970446      -0.19932192       0.44328677      -0.55062749
N        3.00328803       0.78750330      -0.50372416       0.06970236       0.06081358      -0.04620929       1.60554083       1.61418235      -1.20264132
N        4.04912901      -0.11754178      -0.85874075      -0.04049664      -0.01268323      -0.02358287      -0.90892777      -0.21311272      -0.87480819
N        1.63344181      -0.67201716       0.77875668      -0.04685954       0.08456364      -0.03307206      -1.14099942       2.48879047      -1.08031814
N       -1.95242894       1.51710820       1.13558197      -0.03684080      -0.01007628       0.09868584      -1.10805195      -0.70094647       2.76554348
N       -3.05834222      -0.52387142      -1.39394927       0.03219100      -0.00942015       0.00992863       0.64338324      -0.35667242       0.54762062
O        2.70685434      -1.49152946       1.05236387      -0.00454656       0.00432582      -0.01270240       0.14227873       0.27883025      -0.56708521
17
Properties=species:S:1:pos:R:3:REF_forces:R:3:orca_forces:R:3 REF_energy=-396.936569575 orca_energy=-10805.779916754005 pbc="F F F"
C        2.32175827      -1.12704682       0.10338413       0.02025881      -0.03726601      -0.04105948       0.61353173      -1.01635052      -1.06895007
C       -1.29027939      -0.48690227      -0.03492031      -0.00867348      -0.12099200      -0.04700070      -0.40240913      -2.99810320      -1.21799522
C       -1.09170151       0.77126068       0.51821494      -0.00580606       0.20439601       0.05367307      -0.21668904       5.43810726       1.28688430
C       -0.24383536       1.88130760       0.09284745      -0.12387735      -0.02956121       0.13616024      -3.13663541      -0.75123400       3.67857707
H       -0.62774533       2.83434272       0.55841213       0.01636522      -0.02817061      -0.02767324       0.44304849      -0.86997029      -0.78462577
H       -2.15892315       0.89650518       1.16265237       0.12391635       0.03637281      -0.07289153       3.38518544       0.94212864      -1.97340180
H       -2.85659671      -1.70794964      -0.90058583       0.05984157       0.11772884       0.11379201       1.61455776       3.35294693       3.16530426
H       -0.06590555      -2.20576429      -0.41483837      -0.02134690      -0.06008752       0.00764233      -0.56588716      -1.36796211       0.15044897
H        2.32900238      -2.31122541      -0.03496227       0.03737492       0.09232433       0.01141139       0.96521290       2.56794182       0.31541014
H        3.23757291      -0.60044229       0.69042826      -0.10512910      -0.06448610      -0.00035884      -2.86551578      -1.74199081      -0.10415622
H        1.59824002       2.86340475      -0.71584463      -0.08832878      -0.07292023       0.03636003      -2.46679643      -2.09133796       1.01986507
H        2.52468324      -0.59810472      -0.84149855      -0.00664198      -0.02939329      -0.02705517      -0.20189917      -0.79397519      -0.59938912
H        1.52879834       0.90653354      -0.71185011      -0.09120315       0.18888566       0.03932911      -2.46680134       5.14618404       1.07094435
N        0.98292607       2.01531124      -0.43784851       0.16511767      -0.16551852      -0.09585220       4.32480289      -4.43861197      -2.57050685
N       -2.57977104      -0.74637067      -0.17429449       0.03259181      -0.15024641      -0.12430503       1.16468983      -4.26117635      -3.44620373
N       -0.05890579      -1.22349107      -0.37509507      -0.01682200       0.09284437      -0.02739645      -0.52130912       2.27377887      -0.49326251
O        0.98818469      -0.82839525       0.50519949       0.01236244       0.02608989       0.06522448       0.33291354       0.60962481       1.57105712
9
Properties=species:S:1:pos:R:3:REF_forces:R:3:orca_forces:R:3 REF_energy=-192.699303699 orca_energy=-5245.7440770685525 pbc="F F F"
C        2.03917623      -0.73637366      -0.04055683      -0.16449501       0.19492577       0.02258836      -4.61763136       5.60245323       0.69982436
C        1.21191967       0.20456004       0.06346440       0.11714636      -0.16172197      -0.04935645       3.34348525      -4.71560888      -1.40057306
C       -0.01276638       0.99853992       0.01075925       0.00096659       0.04219898      -0.03048278       0.04360509       1.13076389      -0.76364729
C       -1.20091939       0.15833130      -0.10354654       0.00450713      -0.01276981       0.00844482      -0.34934693      -0.79978947       0.29720045
C       -2.05221701      -0.68327469       0.00149799      -0.05050715      -0.08684652       0.02059091      -0.79089370      -1.83473690       0.50319746
H        2.82656765      -1.39224184      -0.02771450       0.05677374      -0.04945976       0.00040314       1.36250530      -1.22641939      -0.01021724
H       -0.00206695       1.85276031      -0.71947640       0.00885541      -0.03495050       0.00714886       0.23170291      -1.05765291       0.28716536
H       -0.04740505       1.50186849       0.94528282      -0.01392440       0.02623820       0.04582498      -0.36325161       0.60707858       1.07906738
H       -2.68825412      -1.61308455       0.21219847       0.04067733       0.08238560      -0.02516183       1.13982506       2.29391186      -0.69201742
6
Properties=species:S:1:pos:R:3:REF_forces:R:3:orca_forces:R:3 REF_energy=-152.7832644328512 orca_energy=-4160.360334458585 pbc="F F F"
H       -1.76161456      -0.84663534       0.22980559       0.01611071       0.04661406      -0.01156798       0.55902588       1.53573349      -0.45427830
H       -1.95291817       0.72794455       0.36498356       0.03229922      -0.04908607      -0.02409480       1.06799556      -1.53007918      -0.83708941
H        0.57721168       0.07353749      -0.09147556       0.02295113       0.02012795       0.00052056       0.94213276       0.38706446       0.06953309
H        2.08628535       0.67808688      -0.04029688      -0.02316559       0.01412096      -0.00497679      -0.72145983       0.00694357      -0.08582723
O       -1.40179896       0.02370369      -0.08366209      -0.04364062       0.00368665       0.03442594      -1.54388143       0.00984118       1.26699679
O        1.53317845      -0.10282038       0.02578500      -0.00455485      -0.03546356       0.00569306      -0.30381294      -0.40950352       0.04066507
13
Properties=species:S:1:pos:R:3:REF_forces:R:3:orca_forces:R:3 REF_energy=-427.922235104 orca_energy=-11649.209008301157 pbc="F F F"
C       -0.15564951      -1.64674532      -0.05008494       0.02825742       0.13418315      -0.06441605       0.77725054       3.71415668      -1.86496222
C        1.32384109       0.00536485       0.14101166      -0.11111005       0.00458743      -0.04611265      -2.52695294       0.36351773      -1.33837086
H       -2.84583068       0.53353912      -0.55574012       0.10637303      -0.05979803       0.02787246       2.85531758      -1.76239118       0.87044470
H       -2.52451468       0.11065295       1.11854160       0.04215840      -0.03927529      -0.12464547       1.11270101      -1.11645563      -3.49539049
H       -0.61433011      -2.58611584      -0.23438458      -0.00481353      -0.03456028       0.00043856      -0.06497673      -0.81711167       0.05581282