14
Properties=species:S:1:pos:R:3:REF_forces:R:3:orca_forces:R:3 REF_energy=-9838.223501020739 orca_energy=-9838.224276594085 pbc="F F F"
O       -1.04875505      -1.05233945       1.51742365       0.05962149      -0.14472416       0.05769048       0.06134465      -0.14445054       0.06790429
C       -0.81775376      -0.34277200       0.37471437       0.30781320       0.05962738       0.13376621       0.31567765       0.06898236       0.12978115
C       -0.23268256       1.94501955      -0.38754550      -0.06507898       0.34310475      -0.23102948      -0.07016894       0.34130040      -0.23362132
O        0.34525501       0.60572843       0.62204070      -0.48094013      -0.24883397      -0.21089209      -0.48636216      -0.26144933      -0.21299392
C        1.43501729      -0.02947068       0.02270603      -0.13008393      -0.04909919      -0.06585096      -0.13055109      -0.05205904      -0.06156278
N        1.19341403      -0.99616433      -0.74157377       0.01815920      -0.06822531      -0.05260995       0.01975430      -0.06636677      -0.05914965
C       -0.26535173      -1.11419125      -0.82085314       0.00287001      -0.08275509      -0.00856707      -0.00111423      -0.09202968      -0.00987738
H       -0.29548111      -1.63723986       1.67411473       0.00154378      -0.18614918       0.07897436       0.00115269      -0.18491058       0.07985092
H       -1.69064057       0.27161980       0.16007791       0.27814837       0.06848858       0.08044334       0.27748489       0.07287872       0.08120177
H        0.75376262       2.38859587      -0.60535413       0.22804876       0.08236701       0.14550377       0.22887722       0.08185834       0.14389849
H       -0.59393564       2.50071950       0.49726764       0.07407668       0.16402054      -0.03256110       0.07037884       0.16555675      -0.03079088
H        2.42616388       0.34730167       0.26669022      -0.24079029       0.17502763       0.09628249      -0.23964378       0.17764421       0.09561042
H       -0.59372113      -0.64495594      -1.75166146      -0.01021194      -0.05144436       0.00505520      -0.00505062      -0.04689507       0.00356892
H       -0.57117511      -2.16187834      -0.80416475      -0.04201566      -0.05822734       0.00480992      -0.04177945      -0.06005977       0.00617997
15
Properties=species:S:1:pos:R:3:REF_forces:R:3:orca_forces:R:3 REF_energy=-9404.049685972226 orca_energy=-9404.048676119866 pbc="F F F"
C       -2.37008518      -0.48029869      -1.05799083      -0.04130617      -0.00448076      -0.01624495      -0.03582048      -0.00483249      -0.01871398
C       -1.04675146      -0.20450750      -0.40439804      -0.03634332      -0.01666412      -0.01487539      -0.03730180      -0.01322234      -0.01464327
O       -0.97819748       0.79944618       0.54701902      -0.02376985      -0.01692809      -0.00659404      -0.02701624      -0.01094452      -0.00696682
C        1.75600263       0.77744280       1.50708428       0.03155631       0.00898351       0.00962545       0.02587113       0.01780523       0.00625616
C        2.46693774       0.14354180       0.58212416       0.04747921       0.01230317       0.01668344       0.05071673       0.00788803       0.01850399
C       -0.01903482      -0.98222448      -0.70502243      -0.03486775      -0.01881197      -0.00047941      -0.03113832      -0.02428870      -0.00490436
O        0.79314904      -1.75155653      -1.05803051      -0.01030925      -0.00678373       0.02100827      -0.00204252      -0.00138010       0.02519128
H       -3.14923733      -0.48919345      -0.28883840      -0.03861507      -0.02813707      -0.01252541      -0.04008870      -0.02689850      -0.00969646
H       -2.62464751       0.28536070      -1.80187874      -0.04831211       0.01719299       0.00467526      -0.04928650       0.01685169       0.00502755
H       -2.36885270      -1.45320862      -1.55913011      -0.04418485       0.00762722      -0.04463611      -0.04517213       0.00563788      -0.04441781
H       -0.87246525       1.64391925       0.08791325       0.02670360      -0.01128665      -0.01224823       0.02688059      -0.01253231      -0.01260018
H        1.50709915       1.83179205       1.41836408       0.03330395       0.01164188       0.01189667       0.02996051       0.01392117       0.00956120
H        1.37136381       0.26917708       2.38732642       0.02099058       0.00513642       0.00531121       0.02254963       0.00065649       0.00600236
H        2.82296503       0.64545456      -0.31470466       0.06430560       0.01869918       0.02471677       0.06055349       0.02090069       0.02439147
H        2.69264331      -0.91624295       0.66303155       0.05032120       0.01103535       0.01691238       0.05133461       0.01043777       0.01700885
13
Properties=species:S:1:pos:R:3:REF_forces:R:3:orca_forces:R:3 REF_energy=-9367.28191329147 orca_energy=-9367.28181614965 pbc="F F F"
C        1.37769545       0.43420127       1.68505888       0.15591263       0.15071586       0.28772810       0.16307566       0.15355093       0.29070483
O        0.89336413      -0.74773535       1.46760990       0.02429047       0.11478299       0.02302094       0.03014557       0.11541182       0.02406648
C        0.35525822      -1.18662969       0.37332109       0.05407492      -0.13805483      -0.03978536       0.05620600      -0.13971553      -0.04447138
C       -1.17751518      -0.28913957      -1.44757411      -0.07330971       0.15129257      -0.10027900      -0.07600425       0.14541905      -0.10141086
O       -2.07205090      -0.09161920      -0.34968642      -0.11661722      -0.02650700       0.11275637      -0.11426289      -0.03166060       0.10378281
C       -0.98678023       0.81490936      -0.56030076      -0.19159839      -0.06182674      -0.18883152      -0.19122332      -0.06074828      -0.18603311
C        0.10250028      -0.23534520      -0.70134444       0.09149091      -0.07359212      -0.04460940       0.08524225      -0.07077888      -0.04003121
H        1.50277247       1.18516001       0.92254457      -0.20483370      -0.09186262      -0.31276345      -0.20872022      -0.09192611      -0.31477035
H        1.76545051       0.56293914       2.67029586       0.23851585       0.04686739       0.47812373       0.23701793       0.04792136       0.47928860
H       -0.11314396      -2.15063302       0.47305506      -0.06339359      -0.11336565      -0.01886052      -0.06218535      -0.11467448      -0.01763175
H       -1.47897864      -0.34016213      -2.47682779      -0.10108716       0.03727903      -0.19627584      -0.10297650       0.03382066      -0.19688320
H       -1.10733909       1.86854537      -0.75599656       0.02294530       0.07823972       0.08843553       0.02746935       0.07972621       0.08521999
H        0.95019657       0.15410276      -1.27398506       0.15561818      -0.06745854      -0.07969821       0.15621577      -0.06634614      -0.08183086
13
Properties=species:S:1:pos:R:3:REF_forces:R:3:orca_forces:R:3 REF_energy=-9265.365751396614 orca_energy=-9265.365545592846 pbc="F F F"
N       -2.21518972       0.42858233      -0.24714764       0.24048120      -0.50776977       0.08650333       0.24591658      -0.50509924       0.08757177
C       -0.82606964       0.06281260      -0.03090841       1.09575977       1.22134840      -0.04231299       1.08340552       1.22224880      -0.04398106
C       -1.43709884      -1.12833172       0.04992581      -1.17816827      -0.31215282      -0.04209237      -1.17707672      -0.31283869      -0.03859767
N        1.36655987      -1.43134393       0.08618122       0.08459332       0.38526342       0.04828278       0.09085140       0.37865345       0.04446898
C        1.50643035      -0.15974859       0.18431835       0.22156414      -0.42503806       0.03313012       0.21881962      -0.42862731       0.03395620
O        2.73110431       0.41129696       0.43561031      -0.34263022       0.11025908      -0.03308176      -0.33959475       0.11011691      -0.03126493
C        0.35775390       0.72286976       0.05152361      -0.45799180      -0.05928855      -0.03686677      -0.45280769      -0.05544963      -0.03714589
H       -2.44915945       0.81909247      -1.15777519       0.10333663      -0.10460913       0.15439858       0.10362439      -0.10360830       0.15360261
H       -2.75597267       0.80361887       0.52399409       0.09741599      -0.08863789      -0.06154065       0.09631601      -0.08821234      -0.06167998
H       -1.59026167      -1.80030170      -0.78830164       0.05933693      -0.02502997      -0.03029080       0.06183964      -0.02490661      -0.03220221
H        2.24966727      -1.90650504       0.26870231       0.04418763       0.08250899      -0.02749326       0.04429139       0.08198299      -0.02506371
H        2.61729592       1.36880140       0.53955020       0.03886956      -0.20645294      -0.01870592       0.03893964      -0.20698644      -0.01855465
H        0.43066385       1.80634425       0.07778285      -0.01281399      -0.06954213      -0.02969789      -0.01452502      -0.06727358      -0.03110946
14
Properties=species:S:1:pos:R:3:REF_forces:R:3:orca_forces:R:3 REF_energy=-7355.774771571268 orca_energy=-7355.774157641146 pbc="F F F"
C       -1.65227813      -1.40511314      -0.95920964      -0.00375000      -0.01694892       0.00307464      -0.00013811      -0.01242181       0.00746925
C       -2.06873131      -0.16034706      -0.74665428      -0.01982685      -0.01940610      -0.00492437      -0.01946712      -0.01889102      -0.00612998
C        0.22461078       1.34893690      -0.18431813       0.03747684       0.07507104      -0.00590956       0.02221663       0.06391264      -0.01192835
C        0.94821486       0.70048288       1.00955519       0.01382394       0.04108274       0.00120390       0.01754369       0.03986512       0.00342877
C        1.98534534       0.26809824      -0.02541607      -0.00019064       0.00897519      -0.00100709      -0.00184383       0.01573761      -0.00151778
O        1.18841402       0.96131615      -1.01913010       0.01760427       0.02929132      -0.00880847       0.02835624       0.02609617      -0.00657759
H       -1.31989065      -1.73186458      -1.94159807       0.00392763      -0.01914408       0.00595649       0.00481347      -0.01817960       0.00240338
H       -1.62936453      -2.14711060      -0.16432755      -0.00168458      -0.01604661       0.00607660      -0.00292621      -0.01716374       0.00932843
H       -2.39814306       0.17943610       0.23238372      -0.03529677      -0.02214772      -0.00884861      -0.03267410      -0.02221263      -0.00735176
H       -2.08808944       0.58468471      -1.53575284      -0.02694515      -0.02282693      -0.01025553      -0.02630135      -0.02146925      -0.01081601
H        0.40854897      -0.08131646       1.54992441      -0.05860388       0.01848302      -0.06633919      -0.05931691       0.02105091      -0.06581935
H        1.27220078       1.47054741       1.71540249       0.08497592      -0.03887714       0.08707848       0.08816143      -0.03648125       0.08639165
H        2.98557976       0.70449182       0.04154430       0.01583398      -0.01691740      -0.00310772       0.01855216      -0.02052094      -0.00439720
H        2.04919497      -0.79818552      -0.25979483      -0.03408679       0.00142107       0.00548683      -0.03697600       0.00067780       0.00551655
12
Properties=species:S:1:pos:R:3:REF_forces:R:3:orca_forces:R:3 REF_energy=-8336.193677237407 orca_energy=-8336.193072472814 pbc="F F F"
O        0.59456919       2.12987702       0.51952106       1.12341328       0.20566719      -0.29460233       1.12712801       0.19308775      -0.30219600
C        0.41202734       1.00981143       0.10049678       0.37947543       0.35002501      -0.02715848       0.37639027       0.35723541      -0.01881406
C       -0.97753169       0.51405945      -0.11626355       0.06902144       0.31608536       0.00299390       0.06879651       0.31738645       0.00158525
C       -0.80060951      -1.03529957      -0.09500278      -0.04715061       0.33656948       0.16494786      -0.04938798       0.34432566       0.16160329
O        0.60481586      -1.27542954      -0.31120776      -0.13448924       0.20842634      -0.03624283      -0.12988396       0.21086022      -0.04217315
C        1.37460823      -0.15183722       0.04277380       0.06624712       0.03617343      -0.02921971       0.06697098       0.03196974      -0.03139045
H       -1.47421697       0.86898957      -1.02039429       0.31298011      -0.00680842      -0.30087486       0.30769723      -0.00914812      -0.30170327
H       -1.26521438       1.26719758       0.65719907      -1.78638292      -1.85512663       0.24195467      -1.78506038      -1.85458077       0.24182907
H       -1.11582229      -1.53823472       0.82719425      -0.01961478       0.22859310       0.13922679      -0.01686871       0.22629628       0.14063678
H       -1.30313658      -1.54116931      -0.93300311      -0.09336164       0.33643192       0.20603620      -0.09449738       0.33557615       0.20562711
H        2.14828207       0.03842519      -0.70763174       0.09575012      -0.13646637      -0.03664379       0.09716512      -0.13551208      -0.03643012
H        1.85571533      -0.26575014       1.02566159       0.02988350      -0.01460176      -0.01916482       0.03155029      -0.01749669      -0.01857445
10
Properties=species:S:1:pos:R:3:REF_forces:R:3:orca_forces:R:3 REF_energy=-8298.004853161523 orca_energy=-8298.003865531642 pbc="F F F"
O       -0.64167376       1.70182090       0.09513840       0.09717648      -0.00530734      -0.20744473       0.10182693       0.00100143      -0.20355244
C       -0.31162587       0.39232467       0.17048753       0.13171099       0.03411205      -0.49637800       0.12887071       0.03007931      -0.49757786
C       -1.31252236      -0.57135458      -0.22474200      -0.03456623      -0.00093301       0.00945297      -0.04543854       0.00052967       0.01343401
O       -2.34411329      -0.17661324      -0.75578854      -0.14088370      -0.00429034       0.19803038      -0.12963226      -0.00336631       0.19890449
C        1.01655693      -0.02130561       0.21525885       0.07890629       0.04195899       0.00442190       0.08224635       0.03963032       0.00637933
C        2.21413989      -0.40815392       0.16447438       0.25009310       0.29132319       0.16058463       0.25532437       0.29297454       0.16024672
H       -1.50008449       1.68194083      -0.37501457      -0.17079537       0.06192681       0.29970414      -0.17135050       0.05789381       0.29879172
H        0.97302804      -0.26479345       1.36214871      -0.24729590      -0.29583094      -0.17295097      -0.24726319      -0.29395092      -0.17384521
H       -1.05983056      -1.64164957      -0.13422293      -0.01341183       0.00133826       0.05412498      -0.01076316       0.00051194       0.05619254
H        3.00262477      -0.72253651      -0.50136836       0.03490938      -0.12219677       0.14073906       0.03617929      -0.12530379       0.14102670
12
Properties=species:S:1:pos:R:3:REF_forces:R:3:orca_forces:R:3 REF_energy=-8332.408798869299 orca_energy=-8332.409369626734 pbc="F F F"
O        1.32682481      -0.72387440      -1.18209842      -0.03373404       0.00933722       0.01002254      -0.03126956       0.00668482       0.00966290
C        0.17280901      -0.68427821      -0.39315983      -0.02485921       0.00509351       0.01538608      -0.02493765       0.00437674       0.01669924
C        0.29099594      -0.28830838       1.10168647      -0.00100953      -0.00063219      -0.03110143       0.00921824      -0.00381904      -0.02405710
C       -0.65540453       0.94263045       1.04343020       0.03837444       0.00702979       0.01723383       0.03642097       0.00956585       0.01431638
O       -0.13557265       1.61055597      -0.10554843       0.04169568       0.00132122       0.00331617       0.03995125       0.01172207      -0.00410909
C       -0.75520618       0.49274134      -0.68501266       0.00116144      -0.05947872       0.01394946       0.00458637      -0.07040422       0.01897648
H        1.72336998       0.15768661      -1.14462353       0.00360019       0.03104639       0.03368413       0.00354889       0.03005619       0.03259890
H       -0.31988078      -1.65293471      -0.51318272      -0.01958830       0.02816287       0.00217736      -0.02120246       0.02709162      -0.00193895
H       -0.03685443      -1.06382509       1.80026930      -0.00913430       0.05367853      -0.03785054      -0.01202358       0.05037854      -0.03891966
H        1.29453154       0.04910847       1.38353393      -0.02796663      -0.00206890      -0.03034528      -0.02705609      -0.00166601      -0.03071846
H       -1.65170532       0.36684761       0.16065513       0.02186455      -0.05847108      -0.10143984       0.01927971      -0.05131936      -0.10231361
H       -1.27351266       0.71803474      -1.62002357       0.00085241      -0.01421825       0.11215380       0.00348392      -0.01266723       0.10980296
16
Properties=species:S:1:pos:R:3:REF_forces:R:3:orca_forces:R:3 REF_energy=-9874.074924550461 orca_energy=-9874.0742962693 pbc="F F F"
N        1.19579935       0.13924013       0.98772897       0.00493921       0.02326509      -0.00060536       0.00299070       0.03318125       0.00484535
C        1.09416055      -1.21214106       0.84978866       0.05870657      -0.09652808      -0.00467359       0.06199497      -0.10454821      -0.00147937
O        2.04427986      -1.97127390       0.96769278      -0.06852016       0.06263618      -0.01427060      -0.07627152       0.06028276      -0.01460108
C       -0.27907580      -1.74899299       0.57498789      -0.01125672       0.00437731      -0.00194316      -0.01794857       0.00610458      -0.00325487
C       -1.41370732      -1.16453290       0.95381114       0.00479460      -0.00581771       0.00011315       0.01026190      -0.00283850       0.00503738
C       -1.30528476       1.21883364      -1.41358791      -0.02151090       0.01918316      -0.02609389      -0.03469958       0.02209159      -0.02590801
O       -0.88432911       1.82330785      -0.45534359       0.02819821       0.01469305       0.04842666       0.02717552       0.01144208       0.04213696
H        2.13128856       0.49907665       1.10538048       0.00085032      -0.00270871      -0.00400626       0.00158137      -0.00332611      -0.00459191
H        0.49484041       0.76750574       0.61095699      -0.01016431       0.00057089       0.00381202      -0.01044806       0.00248196       0.00262898
H        2.40751409       2.01971620      -1.44748209       0.00271559       0.00579329      -0.00929975       0.00264072       0.00940865      -0.01417893
H       -0.28017036      -2.72583782       0.09790533       0.01472950      -0.01079595       0.00689144       0.01405892      -0.01283203       0.00797266
H       -2.37957644      -1.63175784       0.77877079       0.00489526      -0.01412493       0.00001612       0.00454998      -0.01439712      -0.00305402
H       -1.41971271      -0.21303835       1.47972707      -0.00217153       0.01287273       0.01102885      -0.00514358       0.01330541       0.01286988
H       -0.85697765       0.26979664      -1.75547602       0.01705067      -0.01954784       0.01329827       0.02136609      -0.02004574       0.02035051
H       -2.17067331       1.59336104      -1.98883920       0.00323114       0.00165817      -0.03068046       0.00452562       0.00244917      -0.03280115
H        1.70095928       2.09866154      -1.23060217      -0.01041519       0.00028121       0.00117241      -0.00663449      -0.00275975       0.00402761
14
Properties=species:S:1:pos:R:3:REF_forces:R:3:orca_forces:R:3 REF_energy=-8830.602144078031 orca_energy=-8830.602616781112 pbc="F F F"
O        1.82102554      -0.55159192      -1.05977127      -0.31892909      -0.23620651      -0.05265724      -0.31692874      -0.23667003      -0.05524665
C        1.10005650      -0.21088356       0.09523462       0.04928874       0.03716081      -0.03323842       0.05110196       0.04247858      -0.02993266
C        0.37618661       1.10081186       0.16130560       0.02290711       0.00185872       0.08441553       0.02264799      -0.00619534       0.08779212
C       -1.07778114       0.92038292      -0.05114617       0.02015238       0.05381406      -0.15545152       0.02124504       0.06741762      -0.14974900
C       -1.33330802      -0.49100165      -0.50205629       0.08936175      -0.02673882      -0.03899841       0.09386378      -0.02081345      -0.03265179
C       -0.24648001      -0.82108655       0.53988451       0.02026630       0.05241983       0.01048711       0.02651219       0.04788861       0.00315639
N       -0.50793492       0.53211243       1.25386376       0.04566691       0.09819268      -0.07114022       0.04650448       0.09810073      -0.07122676
H        2.71406121      -0.79232099      -0.78600401      -0.12315978      -0.05779073      -0.11023823      -0.12356487      -0.05868837      -0.11009167
H        1.74133896      -0.27598059       0.98398451       0.08815971       0.08492008      -0.04565668       0.09190632       0.08219292      -0.04766595
H        0.83193182       2.08511409       0.10475365      -0.01921815       0.08298960       0.60753953      -0.01806322       0.08603333       0.60925670
H       -1.72778655       1.78958020      -0.07978808      -0.06573463       0.00619227      -0.26208621      -0.07010965       0.00293566      -0.26301590
H       -1.13970679      -0.74164177      -1.54857022       0.00901025      -0.08200397      -0.03713144       0.00791266      -0.08378837      -0.03841803
H       -2.33143928      -0.82518930      -0.20074681       0.13605991      -0.11885893       0.08567050       0.13400365      -0.11901485       0.08599065
H       -0.28153387      -1.75187246       1.11118936       0.03644485       0.09930369       0.01197376       0.03296841       0.09812297       0.01180256
17
Properties=species:S:1:pos:R:3:REF_forces:R:3:orca_forces:R:3 REF_energy=-7416.447219445115 orca_energy=-7416.445107358121 pbc="F F F"
C       -1.23138495      -1.44868491       0.20895236       0.00170672      -0.01885884      -0.00702117       0.00167863      -0.01638631      -0.00814472
C       -0.18981174      -1.58789278      -0.85527997       0.00719106      -0.04039008       0.00020025      -0.00326016      -0.03700921       0.00325642
C       -0.25643585       2.09747274      -0.74095830      -0.00961287       0.09731581       0.01812694      -0.01006528       0.09534737       0.02114166
C       -0.72532335       2.08811315       0.50135272       0.02235842       0.06009308       0.03406268       0.02837196       0.06725679       0.03518807
C        1.10197394      -1.25672757      -0.74649308       0.00974263      -0.04210295       0.01850864       0.01340189      -0.04716069       0.01968784
C        1.69016742      -0.68986229       0.43180353       0.00801966      -0.03954501       0.00089019       0.02172105      -0.03261658       0.01804756
C        2.21487273      -0.21773598       1.41072525       0.00427987       0.02459846       0.02303900      -0.00816730       0.01509489       0.01250683
H       -2.00999220      -0.74140897      -0.10193196       0.02214877       0.00638289      -0.00215273       0.02151174       0.00463048      -0.00213420
H       -1.71580468      -2.41698292       0.38081235      -0.03845242       0.00534516       0.02675921      -0.04058283       0.00548857       0.03091373
H       -0.80512431      -1.09706113       1.15277661       0.02455328       0.00582324      -0.02926193       0.02086937       0.00127987      -0.02818015
H       -0.52083708      -2.01441962      -1.80101973       0.00082989       0.01706028      -0.02584436       0.00802996       0.01278091      -0.02835908
H        0.60038707       1.50243990      -1.05202292      -0.01047304       0.08615967       0.08879337      -0.01209223       0.09419914       0.08309320
H       -0.24959327       1.52205736       1.29824531      -0.02415182      -0.12590267      -0.04834598      -0.02382616      -0.13237861      -0.04848574
H       -0.72270702       2.73371369      -1.48832291      -0.02013844      -0.10717021      -0.16190847      -0.02199346      -0.10784340      -0.16392018
H       -1.59931286       2.67786346       0.76793821       0.02679571       0.04171251       0.07488316       0.02418888       0.04120633       0.07504039
H        1.77739659      -1.42509022      -1.58257893      -0.02088516       0.02138976      -0.02155539      -0.02197174       0.02035808      -0.02464165
H        2.68061712       0.19215799       2.27961853      -0.00116426       0.01871915       0.00488363       0.00218567       0.01575238       0.00499000
15
Properties=species:S:1:pos:R:3:REF_forces:R:3:orca_forces:R:3 REF_energy=-10415.549243850643 orca_energy=-10415.549954398952 pbc="F F F"
O       -1.19967480       1.73665606       0.15855882      -0.96908684      -0.22351692       0.01922718      -0.96961810      -0.21350458       0.01435468
C       -1.41648759       0.51586614      -0.51751212      -0.65311469      -0.56418231      -0.30951141      -0.64878164      -0.56165875      -0.31203791
C       -0.80706555      -0.67708341       0.19571361       0.04464673      -0.12493217      -0.08242981       0.03766132      -0.12588276      -0.07517160
C        0.70153067      -0.66091866       0.11693583      -0.00371940      -0.02328385      -0.05353445      -0.00459529      -0.01911798      -0.05983844
O        1.29619653      -1.03638666      -0.87464932       0.06120639       0.01443903      -0.02872930       0.05993032       0.01260209      -0.01376812
C        1.46772382      -0.07977228       1.28459009      -0.02508234      -0.00424849      -0.00819057      -0.01759816      -0.01217437      -0.01196356
O        2.84521840      -0.12607118       1.07843778      -0.02011636       0.03517985      -0.02770115      -0.01863828       0.03636078      -0.02979497
H       -2.15429800       1.80836942       0.28979048       0.53589660       1.95487106       1.10184543       0.53627169       1.95513335       1.10178958
H       -1.10589761       0.60026509      -1.55995277       0.26290111      -0.25418052      -0.15520327       0.26511591      -0.25173692      -0.15627753
H       -2.52575020       0.37767151      -0.50289885       0.58139414      -0.56302539      -0.51624704       0.58071390      -0.56445979      -0.51712331
H       -1.19299203      -1.55874458      -0.31984484       0.18701116      -0.28346657       0.05324682       0.18949778      -0.28373772       0.04910713
H       -1.15364971      -0.68939710       1.23704462       0.03193357       0.03088609      -0.05934486       0.02909926       0.03327468      -0.05630320
H        1.09234790       0.95044970       1.41610806       0.01482305       0.00701378       0.03252621       0.02117043       0.00852889       0.03586403
H        1.19444406      -0.63691308       2.19381602      -0.00199451       0.01310715       0.01458594      -0.00146382       0.01392570       0.01714884
H        2.96516445      -0.41338534       0.15704110      -0.05240917      -0.02572937       0.01644715      -0.05876531      -0.02755262       0.01401437
14
Properties=species:S:1:pos:R:3:REF_forces:R:3:orca_forces:R:3 REF_energy=-8831.570452806176 orca_energy=-8831.570806873358 pbc="F F F"
O        1.76979372       1.61665238      -1.20709320      -0.03727375       0.07827951       0.03790309      -0.03290378       0.07491626       0.04224074
C        1.16832885       0.69026374      -0.74320330      -0.00995958       0.02022095      -0.00014975      -0.00822914       0.02331854      -0.00780626
C        1.50699652      -0.46164703       0.21402953       0.00636511       0.01285384      -0.00889773       0.00368113       0.00369443      -0.00058789
N        0.14614282      -1.01599435       0.01329023       0.00523865       0.00935827       0.01273591       0.00455493       0.00086025       0.01712259
C       -0.82555559      -0.42326647       0.97797929      -0.01307869      -0.00052924      -0.00058499      -0.01034339      -0.00202248      -0.00153178
C       -1.42813765       0.46935291      -0.12178921       0.00448476       0.01928231      -0.00747629      -0.00259494       0.02025176      -0.00535141
C       -0.21595289       0.06500198      -0.97544227       0.00572127      -0.04078812       0.00701702      -0.00002261      -0.03973737       0.00253676
H        2.30030285      -1.12369537      -0.15049746      -0.00424423       0.02278363      -0.05448285      -0.00060757       0.02544106      -0.05943377
H        1.73723788      -0.17059716       1.24595949       0.03539756      -0.01869968      -0.00704251       0.03404988      -0.01596480      -0.00592626
H       -0.32952393       0.15022441       1.77273874      -0.03104590      -0.02171294       0.03012087      -0.02683043      -0.01694360       0.02751748
H       -1.48874055      -1.15810266       1.44202353      -0.02563075      -0.01614656      -0.03323863      -0.02284342      -0.01783676      -0.03251936
H       -1.59664542       1.52612477       0.09380895       0.06174024       0.03657935      -0.00381684       0.06275439       0.03821079       0.00004248
H       -2.33844776       0.03551220      -0.54277106      -0.03257066       0.07607186      -0.00074968      -0.03367546       0.07287057       0.00173918
H       -0.40562722      -0.18512601      -2.02523200       0.03087953      -0.16335576       0.02306059       0.03301042      -0.16705865       0.02195750
15
Properties=species:S:1:pos:R:3:REF_forces:R:3:orca_forces:R:3 REF_energy=-10416.905309512751 orca_energy=-10416.904978878872 pbc="F F F"